/*--------------------------------*- C++ -*----------------------------------*\
| =========                 |                                                 |
| \\      /  F ield         | OpenFOAM: The Open Source CFD Toolbox           |
|  \\    /   O peration     | Version:  4.1                                   |
|   \\  /    A nd           | Web:      www.OpenFOAM.org                      |
|    \\/     M anipulation  |                                                 |
\*---------------------------------------------------------------------------*/
FoamFile
{
    version     2.0;
    format      ascii;
    class       volVectorField;
    location    "28";
    object      U;
}
// * * * * * * * * * * * * * * * * * * * * * * * * * * * * * * * * * * * * * //

dimensions      [0 1 -1 0 0 0 0];

internalField   nonuniform List<vector> 
1620
(
(1.07987 1.24318 4.01511e-17)
(0.383255 1.08439 1.03481e-16)
(0.453258 0.547424 2.78272e-17)
(0.346272 0.337247 7.74513e-17)
(0.203101 -0.0003866 -3.2041e-17)
(0.345528 -0.338741 1.26671e-16)
(0.453142 -0.548238 -2.57126e-17)
(0.383167 -1.08562 -1.20006e-17)
(1.08032 -1.24466 -2.99646e-17)
(1.32931 0.408096 1.85911e-17)
(1.03172 0.653154 1.11796e-16)
(0.22856 0.386501 1.09925e-16)
(0.811931 0.209327 8.73069e-17)
(0.447046 -0.000342595 4.66272e-17)
(0.81227 -0.210257 6.09355e-17)
(0.229505 -0.387194 -7.2667e-18)
(1.03216 -0.65411 -5.38941e-17)
(1.32998 -0.409137 8.11269e-19)
(0.929098 0.382651 -1.02385e-16)
(1.25481 0.36904 7.89762e-18)
(0.682869 0.301157 1.32822e-16)
(0.636812 0.123745 1.56946e-16)
(0.755863 -0.000397801 4.3018e-17)
(0.636945 -0.124811 7.46031e-17)
(0.682925 -0.301887 -1.31051e-16)
(1.25512 -0.369871 1.58093e-17)
(0.928949 -0.383276 -8.24266e-18)
(0.960424 0.18325 1.21462e-16)
(1.0972 0.32918 -3.96636e-17)
(0.907014 0.171314 -6.06153e-17)
(0.93707 0.121601 -4.6741e-17)
(0.763564 -0.000304551 -3.30183e-17)
(0.936981 -0.122144 -7.43652e-17)
(0.907062 -0.171788 7.13717e-17)
(1.09748 -0.329977 -4.35365e-17)
(0.960538 -0.183553 2.74381e-18)
(0.807595 0.162042 -3.24629e-17)
(1.20794 0.14417 6.62215e-17)
(0.91362 0.168217 7.87304e-17)
(0.855301 0.0605592 -1.41381e-17)
(0.955186 -0.000271587 -1.43016e-18)
(0.855514 -0.0611433 5.85162e-17)
(0.913795 -0.168833 -7.73186e-17)
(1.20825 -0.144658 -4.32287e-17)
(0.80798 -0.162185 2.62817e-18)
(0.889284 0.0734959 9.7484e-17)
(1.01609 0.157271 -9.66629e-17)
(1.07676 0.0593263 1.91794e-17)
(1.01225 0.0700012 -6.04593e-17)
(0.906311 -0.000189652 3.04817e-18)
(1.01219 -0.070366 -5.35071e-17)
(1.07669 -0.0595869 -4.43458e-18)
(1.01637 -0.157674 -1.67371e-17)
(0.889164 -0.0735068 2.85635e-17)
(1.01214 0.0782227 -8.17588e-17)
(1.09546 0.0476623 1.50613e-16)
(0.963505 0.0866692 -1.63069e-17)
(0.954965 0.013236 2.58818e-17)
(1.02568 -0.000134951 6.05642e-17)
(0.955133 -0.0135054 -3.06434e-17)
(0.963791 -0.0870164 -3.43817e-17)
(1.09571 -0.04784 -1.00932e-16)
(1.01189 -0.0783289 -7.96208e-18)
(1.05275 0.0240318 1.12479e-16)
(0.991279 0.0708116 -5.57438e-17)
(1.07766 -0.00236242 1.43072e-17)
(1.02522 0.0336878 9.39699e-17)
(0.958561 -6.76486e-05 3.09507e-17)
(1.02519 -0.0338423 5.18573e-17)
(1.07753 0.00229847 1.06606e-16)
(0.991307 -0.0709693 7.76511e-17)
(1.0525 -0.0240274 4.89196e-17)
(1.05332 0.0207221 -6.23556e-17)
(1.02383 -0.0104822 6.0318e-17)
(0.948473 0.0350058 -2.0413e-17)
(0.982972 -0.0126218 -4.87057e-17)
(1.03287 3.6997e-06 6.92722e-17)
(0.982994 0.0126246 -1.07934e-16)
(0.948635 -0.03506 -7.86145e-17)
(1.02389 0.0104694 -6.27684e-17)
(1.05349 -0.0207252 -8.1157e-18)
(0.82197 0.00122355 -3.82016e-16)
(1.27094 0.0592623 -1.60645e-16)
(1.49844 0.0726884 -9.85743e-17)
(1.47733 0.156807 6.45017e-17)
(1.28228 0.156372 1.5455e-17)
(1.09697 0.283178 8.37118e-17)
(1.09654 0.462622 6.85893e-18)
(1.37797 0.0520493 -3.3739e-17)
(1.16787 1.22794 1.29281e-17)
(1.18 0.0664032 4.16892e-17)
(1.21177 0.0422805 -1.12263e-16)
(1.16265 0.129946 -9.5062e-17)
(0.965988 0.121239 2.03946e-16)
(0.870201 0.231922 -2.03321e-17)
(1.04909 0.239396 7.35608e-17)
(1.32272 0.538433 -6.02603e-17)
(1.42911 0.00440344 5.08782e-17)
(1.0144 1.01101 8.36378e-17)
(1.09211 0.0576136 -4.18712e-16)
(1.43862 0.110365 -1.72515e-16)
(1.57854 0.156239 3.99021e-17)
(1.60694 0.238299 9.54796e-17)
(1.58394 0.280329 2.06043e-17)
(1.52841 0.299789 9.3617e-17)
(1.4926 0.434813 2.52991e-17)
(1.52734 0.045065 1.02477e-16)
(1.01694 0.917803 3.79166e-17)
(1.63734 0.0995283 -1.67834e-16)
(1.60087 0.0350028 8.80803e-17)
(1.54965 0.168082 -2.07142e-17)
(1.31118 0.114479 1.53213e-16)
(1.20086 0.230906 1.02602e-16)
(1.33807 0.21882 -6.28849e-17)
(1.58728 0.422062 -9.77733e-17)
(1.53386 0.00831167 6.43461e-17)
(0.859906 0.800833 8.19993e-17)
(1.56283 0.0351025 -4.57974e-16)
(1.86563 0.0978889 -8.83582e-17)
(1.86671 0.11699 1.02021e-16)
(1.95158 0.193277 8.19473e-17)
(2.01995 0.201061 -8.03422e-17)
(2.05567 0.274236 1.57022e-17)
(1.84248 0.322247 -3.36263e-18)
(1.53098 -0.00819043 8.15992e-17)
(0.884461 0.620903 -1.96324e-17)
(2.22849 0.051924 -1.1205e-17)
(1.99888 -0.0388972 9.27152e-17)
(2.02677 0.107157 -1.81241e-17)
(1.76709 0.0336413 7.48958e-17)
(1.63819 0.143099 1.29879e-16)
(1.52591 0.0924228 -1.03719e-17)
(1.67475 0.316793 -5.1512e-17)
(1.54662 0.0473763 -1.66325e-17)
(0.492318 0.501189 -2.66188e-18)
(1.83685 -0.0666917 -3.16376e-16)
(2.24239 0.096292 -5.47369e-17)
(2.08159 0.00102239 4.99278e-17)
(2.21446 0.0964056 1.51799e-16)
(2.264 0.0752386 -9.13427e-17)
(2.39166 0.176505 -2.03554e-17)
(2.11105 0.187172 2.20095e-17)
(1.33524 0.0376269 6.28769e-17)
(-0.0855458 0.146761 -6.17328e-17)
(2.50818 0.0340023 -7.25868e-17)
(2.08994 -0.0797917 2.90676e-17)
(2.27988 0.0547273 3.35401e-17)
(1.98307 -0.0289868 1.45056e-17)
(1.94165 0.0840429 7.58103e-17)
(1.62783 -0.0131321 1.87363e-17)
(1.44526 0.169766 -3.12717e-17)
(1.27479 0.0784664 -3.79874e-17)
(-0.194417 0.0219434 -5.79146e-17)
(1.82689 -0.0844845 -3.05264e-16)
(2.36468 0.152065 -1.57447e-16)
(2.09964 -0.126924 4.37375e-17)
(2.31677 0.00423208 1.87659e-16)
(2.33688 -0.0351644 -3.25869e-17)
(2.4627 0.0352355 -3.91212e-17)
(2.22995 0.0135976 2.65181e-17)
(1.19165 0.0806563 4.43296e-17)
(-0.434169 0.209492 8.50693e-17)
(-0.121553 0.811583 -1.8143e-17)
(-0.260381 0.651592 -1.11695e-17)
(-0.202762 0.603955 -1.2816e-17)
(-0.442789 0.421068 7.24978e-17)
(-0.706766 0.000652054 2.19753e-16)
(-0.44614 -0.423146 7.19141e-17)
(-0.207128 -0.603182 1.75528e-17)
(-0.261821 -0.65742 -5.3094e-17)
(-0.12786 -0.807063 1.56393e-17)
(0.769849 -0.181457 -1.86975e-17)
(0.0491645 0.087375 1.53723e-18)
(-0.411037 0.305844 -2.56074e-16)
(-0.396504 0.273739 -1.30533e-16)
(-1.00913 0.000784466 -2.84661e-17)
(-0.397932 -0.271109 -1.16469e-16)
(-0.408224 -0.30292 -2.61932e-16)
(0.0589065 -0.0881457 -1.01327e-16)
(0.776671 0.181502 -4.34877e-17)
(1.29524 0.0205425 6.48609e-17)
(0.704637 0.161498 -4.16496e-17)
(0.627621 -0.0390989 -2.1058e-17)
(-0.296903 -0.102848 -7.55062e-17)
(-0.911344 -0.000424257 1.1823e-17)
(-0.299886 0.103558 4.59835e-17)
(0.624123 0.0396913 7.39453e-17)
(0.700426 -0.162345 -1.47545e-16)
(1.29501 -0.0212871 3.60057e-17)
(1.54535 -0.141726 1.39058e-17)
(-0.0187604 0.108069 -7.95037e-17)
(-0.55477 0.119447 -2.80711e-16)
(-0.518093 0.200863 -1.74196e-16)
(-1.11613 -0.000135878 -1.70081e-17)
(-0.520027 -0.198163 -3.10623e-17)
(-0.552544 -0.120749 9.96996e-17)
(-0.0103505 -0.107004 -1.19844e-16)
(1.54444 0.14182 -2.59197e-17)
(2.0024 0.00166717 5.25128e-18)
(1.47276 -0.336668 -4.45959e-17)
(1.23788 0.0486197 -1.22607e-16)
(-0.271511 -0.089724 -1.41609e-16)
(-0.921707 -0.00111215 -6.06369e-17)
(-0.275267 0.0905741 1.99235e-17)
(1.23679 -0.0495771 1.75528e-17)
(1.47173 0.336795 -3.71868e-17)
(2.00299 -0.0032826 3.10759e-17)
(1.92786 -0.0605493 6.80367e-17)
(0.729196 0.0741056 3.96993e-17)
(-0.154974 -0.00282216 -5.1439e-17)
(-0.515907 -0.0271629 -1.0247e-16)
(-0.997577 -0.000732061 -6.62174e-17)
(-0.517932 0.0277813 1.81238e-16)
(-0.156942 0.00154169 6.67688e-17)
(0.734836 -0.0758079 -1.15134e-16)
(1.92863 0.0606817 -6.72349e-17)
(2.30906 0.00473311 2.7471e-17)
(1.68962 -0.28963 -5.37198e-17)
(1.18589 -0.0531965 -1.1806e-16)
(-0.0226307 -0.0964801 -2.31043e-17)
(-0.786775 -0.000712603 -2.93661e-17)
(-0.0249337 0.0978028 -1.47891e-16)
(1.19082 0.0551865 3.07942e-17)
(1.68989 0.290245 -2.78129e-17)
(2.30958 -0.00515378 4.90879e-17)
(1.97916 0.0239677 9.18725e-17)
(1.13603 0.0314004 6.44716e-18)
(0.783664 -0.268141 -3.01035e-17)
(-0.381719 -0.108844 -5.18387e-17)
(-0.894317 -0.000915843 3.9673e-17)
(-0.386308 0.108097 9.57666e-17)
(0.781138 0.267048 5.14329e-17)
(1.13605 -0.0343532 -8.44561e-17)
(1.98029 -0.0243405 -7.29742e-17)
(2.74498 0.101818 -3.71951e-17)
(1.66647 -0.244978 -3.57591e-18)
(1.1815 -0.142902 -9.4413e-17)
(0.138329 -0.107722 -8.96149e-17)
(-0.63943 -0.00154103 -1.92862e-17)
(0.138919 0.111377 -4.33543e-17)
(1.18212 0.141678 -1.93598e-17)
(1.66723 0.244064 -4.94936e-17)
(2.74637 -0.101615 8.59248e-17)
(1.82708 0.0851804 2.14842e-16)
(2.36403 -0.153506 8.95906e-17)
(2.09981 0.127282 -2.43086e-18)
(2.31556 -0.00552974 1.36835e-18)
(2.3356 0.0354413 -1.6254e-16)
(2.46305 -0.036143 -4.17201e-17)
(2.23304 -0.0114939 -1.84038e-17)
(1.198 -0.0804678 -1.88808e-17)
(-0.437962 -0.207284 3.05606e-18)
(2.5074 -0.0347826 1.23154e-16)
(2.09092 0.0811857 -2.40223e-17)
(2.27964 -0.0554735 3.35115e-17)
(1.98431 0.0296909 -6.62227e-17)
(1.94336 -0.0848169 -2.75653e-17)
(1.62916 0.0144646 -3.35666e-17)
(1.44473 -0.170179 1.65805e-17)
(1.27509 -0.0764063 -4.76788e-17)
(-0.19593 -0.0242569 1.34286e-16)
(1.83824 0.0677496 2.27328e-16)
(2.24214 -0.097234 1.23186e-16)
(2.0827 -0.000361116 2.60796e-17)
(2.21374 -0.0969835 4.55319e-17)
(2.2637 -0.074289 -1.4514e-16)
(2.39266 -0.177223 -4.63388e-17)
(2.11317 -0.187119 -2.36659e-19)
(1.3378 -0.0381565 -2.63116e-17)
(-0.0830038 -0.148615 3.97403e-17)
(2.22806 -0.0525654 1.64204e-16)
(2.00005 0.0396353 3.07072e-17)
(2.02715 -0.107394 6.51773e-17)
(1.76916 -0.0330347 -6.31663e-17)
(1.64039 -0.143414 -5.41552e-17)
(1.52669 -0.0917289 -9.78687e-17)
(1.67438 -0.316837 2.29322e-18)
(1.54822 -0.0464539 -4.66986e-17)
(0.496717 -0.501964 -4.77589e-17)
(1.56427 -0.0347344 2.69888e-16)
(1.86612 -0.0982215 -1.20935e-17)
(1.86745 -0.116792 -5.12278e-17)
(1.95107 -0.193679 4.84141e-17)
(2.02055 -0.200857 -2.2271e-16)
(2.05743 -0.274585 -8.00278e-17)
(1.84427 -0.32232 1.04019e-17)
(1.5315 0.00865972 -8.16284e-17)
(0.883864 -0.620613 -7.55036e-17)
(1.63712 -0.0999413 2.58445e-16)
(1.60147 -0.0348343 -5.96274e-17)
(1.55004 -0.168401 3.57839e-18)
(1.31234 -0.114467 6.51299e-17)
(1.20203 -0.231221 -8.04866e-18)
(1.33828 -0.21892 -2.10379e-16)
(1.58722 -0.422274 1.52332e-17)
(1.53486 -0.00859559 -2.37231e-17)
(0.861082 -0.802199 -4.78258e-18)
(1.09277 -0.0574285 4.16116e-16)
(1.43945 -0.110568 -7.19524e-17)
(1.57891 -0.156163 -7.16517e-17)
(1.60664 -0.238638 -2.35479e-17)
(1.58493 -0.280543 -3.64314e-17)
(1.53022 -0.300221 -7.46937e-17)
(1.49384 -0.435158 -2.77883e-17)
(1.52788 -0.0446583 -3.35902e-17)
(1.0172 -0.918573 -4.56771e-17)
(1.18006 -0.0665719 2.11219e-16)
(1.2117 -0.0420827 1.5142e-16)
(1.16245 -0.130023 -2.33563e-17)
(0.965914 -0.121066 4.46881e-17)
(0.87045 -0.232058 4.21802e-18)
(1.049 -0.239484 -1.32428e-16)
(1.32266 -0.538706 -9.92174e-17)
(1.42974 -0.0047232 4.38204e-17)
(1.01493 -1.01233 -3.61841e-17)
(0.822457 -0.00123505 2.03254e-16)
(1.27224 -0.0594433 1.79582e-17)
(1.49866 -0.0727586 4.42546e-18)
(1.47693 -0.157168 -8.04441e-18)
(1.28297 -0.156573 4.84003e-17)
(1.0986 -0.283539 5.68574e-17)
(1.09703 -0.462878 -1.53288e-16)
(1.37827 -0.0517273 -2.87231e-17)
(1.16811 -1.22895 1.45499e-18)
(1.62776 1.88128 -3.5226e-17)
(2.22266 0.478286 -1.32709e-16)
(0.467095 0.960338 -2.11008e-17)
(1.04699 0.962141 -1.15114e-16)
(-0.184202 0.272925 -2.23256e-16)
(-0.871598 0.666509 -1.11439e-16)
(-0.479087 0.822993 -9.43573e-17)
(-2.01573 0.79077 -8.05534e-17)
(-1.53315 1.81885 3.85169e-18)
(0.267214 2.41854 9.18712e-17)
(1.37242 2.30898 3.08875e-17)
(0.391289 -0.64944 -3.51656e-17)
(0.483485 1.86145 1.25367e-17)
(0.267925 1.01109 -3.08668e-17)
(-0.0927893 1.40482 -7.22536e-17)
(-0.352837 -0.522559 -1.31015e-16)
(-1.29332 2.30005 1.11103e-16)
(-0.296538 2.32907 8.14483e-17)
(0.103326 1.30437 -7.6737e-18)
(0.909577 2.82774 5.75344e-17)
(-0.155349 0.67778 -3.20118e-17)
(0.108687 0.547931 -1.04659e-16)
(-0.105628 0.992374 -1.45747e-16)
(-0.200239 0.761772 -1.25303e-16)
(-0.285094 1.63594 1.8314e-16)
(-0.595465 2.66968 1.13308e-16)
(-0.159673 1.32512 -5.18284e-17)
(-0.500691 1.34301 8.36586e-17)
(0.855135 2.35865 6.52562e-17)
(-0.0216999 1.87846 1.08885e-16)
(0.305417 1.86157 8.59096e-17)
(0.0636421 1.14798 2.37075e-18)
(-0.133383 1.71228 3.88977e-17)
(-0.0552444 1.7488 6.29856e-17)
(-0.48216 2.01369 -1.15428e-17)
(0.184399 1.39048 8.2072e-18)
(-0.804523 1.06983 2.11238e-17)
(0.163156 2.43833 9.11288e-18)
(-0.105934 1.50177 2.20326e-17)
(-0.0121681 0.866658 -3.30912e-17)
(-0.0291732 1.22254 -8.85112e-17)
(0.05786 1.12916 -6.66463e-17)
(0.0973993 1.92946 1.12692e-16)
(0.17422 2.31291 5.82235e-17)
(0.560544 0.899893 -8.71124e-17)
(-0.900849 0.928229 2.67381e-17)
(0.0327632 2.03872 1.30417e-17)
(-0.399785 2.12168 6.05723e-17)
(0.0445047 1.73379 3.89598e-17)
(0.0705807 1.09563 -3.54428e-17)
(0.109812 1.72062 3.00507e-17)
(0.396664 1.90702 7.80939e-17)
(0.283953 1.74454 -9.05573e-17)
(0.42122 0.995446 -8.71756e-18)
(-1.6197 1.20611 -3.16465e-18)
(-0.580619 1.92544 -5.05242e-18)
(-0.485522 1.51228 -4.36942e-18)
(-0.256316 0.915529 -2.40423e-17)
(0.0586449 1.07656 -1.45591e-16)
(0.408046 1.11542 -7.02939e-17)
(0.646075 1.79942 9.87594e-17)
(0.893461 1.85088 2.62115e-17)
(1.34106 0.569658 -5.83721e-17)
(-1.40996 1.50034 5.66661e-17)
(-0.690547 1.8335 1.21158e-17)
(-0.744068 1.99977 7.30382e-17)
(-0.250965 1.45935 3.29841e-17)
(0.097974 0.773017 6.88153e-17)
(0.40067 1.45013 6.7293e-17)
(0.821279 1.71921 8.43959e-17)
(0.925352 1.71006 -5.68312e-17)
(1.4868 1.45053 8.3862e-18)
(-2.19191 1.32726 2.31281e-18)
(-1.64008 1.53142 -1.88244e-17)
(-0.936017 1.13056 1.57553e-17)
(-0.556505 0.440417 -6.00358e-17)
(0.201982 0.524545 -1.34641e-16)
(0.812648 0.66851 -5.75308e-17)
(1.22516 1.33446 1.21211e-16)
(1.74115 1.36226 2.77694e-17)
(1.93419 0.74442 -3.3632e-17)
(-0.920943 -1.06433 -2.90643e-17)
(0.642983 1.97245 -4.37391e-17)
(-1.1169 -0.461381 -1.73543e-17)
(0.347892 1.28829 -4.4379e-17)
(-0.691823 0.806521 -4.47756e-17)
(-0.628971 1.44936 -1.03306e-16)
(-0.793254 1.78192 -8.99259e-18)
(-0.567889 2.14919 6.75349e-17)
(-1.91134 1.81677 -4.50589e-17)
(0.0153716 -1.18202 -7.16927e-17)
(0.0830314 0.0592869 2.2644e-18)
(0.0624973 -0.717589 -1.12499e-17)
(0.0180159 -1.14291 -9.09721e-17)
(-0.29128 1.29118 -1.31959e-16)
(-0.3594 1.94579 6.07633e-17)
(-0.946559 2.0003 1.2397e-16)
(-0.0500474 2.29935 6.37316e-17)
(-1.35919 1.65371 -2.01361e-17)
(-0.101051 0.256358 -1.0241e-16)
(-0.303703 0.69215 -7.61762e-17)
(-0.205196 0.894967 -7.03158e-17)
(-0.829699 1.20197 -4.97027e-17)
(-0.609928 1.71719 4.17334e-18)
(-0.821539 1.56584 4.02952e-17)
(-0.93744 2.14071 -2.49961e-17)
(-0.221695 1.90729 2.55766e-17)
(-1.37652 1.23662 -6.94131e-17)
(-0.0080817 1.22433 9.76203e-19)
(-0.168631 0.21516 1.81466e-16)
(-0.0495118 0.448806 -7.9626e-17)
(-0.220076 1.33293 1.00182e-16)
(-0.10245 1.3353 -8.17371e-18)
(-0.399121 2.17936 3.26996e-17)
(-0.631405 2.12627 8.42066e-17)
(-0.0170771 1.85506 7.56469e-17)
(-1.076 1.19236 -3.312e-18)
(0.00718701 0.973164 -1.43524e-16)
(-0.0242916 1.05766 -5.36781e-17)
(-0.309085 0.599963 -5.04103e-17)
(-0.461489 1.54579 -3.41304e-17)
(-0.44501 2.00373 -4.38478e-17)
(-0.619813 1.98962 1.9591e-17)
(-0.619894 2.11519 -3.3231e-17)
(-0.211815 1.59378 -4.70887e-18)
(-1.25637 0.721499 -9.70741e-17)
(0.00253826 1.47176 4.09296e-17)
(-0.0619559 1.46351 -1.30906e-17)
(-0.131674 2.30121 -5.7883e-17)
(-0.256716 2.30274 -2.41043e-17)
(-0.214682 2.1389 3.66543e-17)
(-0.418176 2.49822 4.3452e-17)
(-0.437869 2.1342 8.35268e-18)
(-0.204228 1.2677 -1.22712e-17)
(-0.130659 -0.0467447 -9.39007e-17)
(0.0248759 1.99289 -1.50771e-16)
(-0.189345 2.08683 -5.79158e-17)
(-0.263225 1.60896 3.10915e-17)
(-0.363887 2.07029 2.21851e-17)
(-0.552265 2.54479 1.21535e-17)
(-0.605669 2.37759 -2.14711e-17)
(-0.494239 1.85086 -6.41055e-17)
(-0.134313 1.15284 -9.41589e-17)
(-0.147857 -0.418966 2.26754e-17)
(0.256997 2.51972 -1.74464e-17)
(-0.0472562 1.6751 3.27232e-17)
(-0.0549544 2.57127 5.32102e-18)
(-0.468519 3.49299 -3.67871e-17)
(-0.482016 2.90487 -1.4181e-17)
(-0.471181 2.03129 1.69009e-17)
(-0.546449 1.45534 2.98308e-17)
(-0.221877 0.244999 5.50907e-17)
(-0.139511 0.299818 4.48226e-17)
(0.388274 2.59625 -1.09526e-16)
(-0.551326 3.37366 -3.85348e-17)
(-0.485956 3.44621 -1.29633e-17)
(-0.759145 2.83623 6.12129e-18)
(-0.584677 1.36037 7.86879e-17)
(-0.783939 1.21483 3.47382e-17)
(-0.646451 0.39116 4.52707e-17)
(-0.548345 -0.280292 1.69126e-17)
(-1.27951 -0.670815 1.27565e-17)
(2.4021 -0.790554 1.1113e-17)
(-0.752972 2.13764 6.44426e-17)
(0.525085 -1.56371 1.31737e-18)
(-0.0617141 -0.547214 -4.24862e-18)
(1.75514 0.711188 -1.11249e-16)
(1.32751 1.50959 -7.67493e-17)
(1.55292 1.31751 -7.0337e-17)
(1.45304 1.70948 -6.55407e-17)
(2.01062 1.76598 -6.4399e-17)
(1.61958 -0.791822 3.7687e-17)
(0.25902 1.81427 1.8971e-17)
(-0.537943 1.2482 -9.77174e-17)
(0.446837 1.26563 5.76165e-17)
(0.338841 1.87697 -7.75166e-17)
(-0.00278112 2.50911 6.99768e-17)
(0.185704 2.21816 -6.23765e-18)
(-0.0875273 2.46862 4.68188e-17)
(0.456667 2.23525 4.04994e-17)
(1.74497 0.315886 1.55342e-17)
(0.203867 0.895138 6.11334e-17)
(0.476982 1.96529 -3.46741e-17)
(0.47368 2.09001 1.4869e-17)
(0.941941 2.5902 -2.96357e-17)
(0.864237 2.61016 4.65045e-17)
(0.94693 2.23165 -1.25441e-17)
(0.748315 1.93696 3.51254e-17)
(0.865068 1.64969 -3.20987e-17)
(0.733695 -0.270057 5.75796e-17)
(0.657357 1.75329 4.22805e-17)
(0.387275 2.75334 -5.21379e-17)
(0.60459 2.62561 2.45098e-17)
(0.824733 2.64598 -3.89968e-17)
(0.585243 2.61847 8.30641e-17)
(0.516841 1.68703 -3.07319e-17)
(0.0456338 1.59495 6.97204e-17)
(0.851058 1.68097 5.03212e-17)
(0.680889 1.56006 2.8985e-17)
(0.824184 3.33554 -7.35397e-18)
(0.307039 2.71986 1.0211e-17)
(0.578229 2.37797 -7.78577e-18)
(0.765268 2.4668 2.19137e-17)
(0.481789 1.83388 1.04265e-16)
(0.556189 0.880321 6.42074e-17)
(0.215753 0.0990245 1.03654e-16)
(0.854137 1.27162 -3.44613e-17)
(0.770035 3.86841 1.45203e-17)
(0.753981 3.34748 3.2297e-17)
(0.0741943 2.69936 6.37095e-17)
(0.372384 1.60452 1.92617e-17)
(0.570144 2.51032 6.83255e-17)
(0.0954107 0.795319 5.84139e-17)
(-0.00891074 0.941863 4.12407e-17)
(-0.0946611 0.52728 3.15115e-17)
(0.219534 1.87859 5.65489e-17)
(0.140471 4.2472 1.56514e-18)
(0.472596 2.81321 2.64117e-17)
(-0.0255579 2.56517 2.65307e-17)
(0.231475 1.60575 1.63582e-17)
(0.520127 2.40665 2.00994e-18)
(-0.00578361 0.121803 7.34295e-19)
(0.319968 0.881338 -3.55811e-17)
(0.374612 0.482438 2.54488e-17)
(0.845263 1.12904 -2.1119e-17)
(0.186482 3.74305 1.45261e-17)
(0.316137 3.28686 6.25446e-17)
(0.0772419 2.03764 1.36591e-17)
(0.1547 2.33217 -1.43589e-17)
(0.303215 1.97369 4.69623e-17)
(-0.120479 0.41152 -6.11049e-17)
(0.232107 1.70915 2.54359e-18)
(-0.0834092 0.80436 4.96666e-17)
(-0.484849 2.48469 5.49917e-17)
(-0.396852 3.47954 -1.5597e-17)
(-0.217358 3.61036 2.14852e-17)
(-0.15289 1.80698 -4.71508e-17)
(0.0102825 2.6648 -1.77896e-18)
(0.074928 0.907642 2.81047e-17)
(0.047861 0.925026 -1.22798e-16)
(0.217049 1.02497 1.31775e-16)
(0.161991 -1.16355 6.22884e-17)
(0.689061 -0.764483 2.47796e-17)
(-1.55319 -0.806966 1.86734e-17)
(-1.76333 -0.931826 5.20873e-18)
(-1.78869 -1.15625 2.18942e-17)
(-1.03452 -1.69773 -5.23636e-17)
(0.155916 -3.63561 -5.49461e-17)
(1.27001 -2.27498 2.89805e-17)
(3.22248 -1.70169 -2.83159e-17)
(2.77492 -1.21662 1.49821e-17)
(3.12396 -1.71261 3.33383e-18)
(-0.198033 1.42792 9.48743e-19)
(-1.25512 0.064325 -2.6109e-17)
(-1.27479 0.348347 -7.60152e-17)
(0.536364 -0.083381 -5.14361e-18)
(-0.345597 -4.52116 -6.37779e-17)
(2.21121 -1.87085 -6.9694e-17)
(2.48514 -0.687494 -6.50461e-17)
(2.51989 -0.3111 -1.41368e-17)
(-0.149237 2.49534 4.10918e-17)
(-0.119465 0.818756 6.3895e-17)
(-0.744851 0.26547 4.1559e-17)
(-0.555725 -1.2512 3.09595e-18)
(0.498322 -1.48412 2.28147e-18)
(-0.0723716 -5.46757 -9.54953e-17)
(1.67446 -1.24123 -4.98198e-17)
(0.640347 0.785609 -2.29796e-18)
(0.00139842 0.789233 7.1815e-17)
(-2.214 0.718052 6.49346e-17)
(-0.214292 1.85599 3.30443e-18)
(-0.724577 0.0401175 -1.11416e-17)
(-0.930719 -0.440549 3.71349e-18)
(0.17979 -1.27304 -5.89981e-17)
(-0.511721 -5.88996 -8.87661e-17)
(1.83868 -1.2953 -7.98494e-17)
(-0.115265 0.637464 4.19526e-18)
(1.22665 1.26256 4.03612e-17)
(-1.24193 1.18526 9.94884e-17)
(0.26641 1.86129 4.49148e-17)
(-0.374403 1.91985 5.54071e-17)
(-0.462822 0.114194 -1.41843e-17)
(-0.0248904 -1.66422 -3.73128e-17)
(-0.402334 -6.76228 -7.2001e-17)
(1.62042 -0.0465024 -5.75731e-17)
(-0.125703 1.15637 -8.33838e-18)
(1.66762 1.2463 1.68875e-17)
(-0.556579 1.49806 6.3977e-17)
(-0.0650434 2.32471 6.20903e-17)
(-0.630624 0.59032 4.18437e-17)
(-0.590581 -0.701156 -6.98427e-17)
(-0.539768 -1.19303 -9.5168e-17)
(-0.644083 -6.9423 -6.87053e-17)
(1.67345 -0.16413 -3.88433e-18)
(0.211125 0.419339 1.71526e-17)
(1.06657 1.86071 2.96889e-17)
(-0.407623 3.10895 4.18503e-17)
(0.323871 3.10798 1.55189e-17)
(-0.117305 2.49382 3.73202e-17)
(-0.545029 1.48122 1.1314e-17)
(-0.285535 -1.52769 -9.71921e-17)
(-0.686773 -8.25595 -3.46586e-17)
(0.937592 0.286802 6.2964e-18)
(-0.512404 1.50359 1.21836e-18)
(0.566842 2.4035 1.20616e-17)
(-0.620742 3.77913 2.452e-17)
(0.0558554 3.61423 3.90623e-17)
(-0.505065 1.82111 3.33724e-17)
(-0.872962 -0.0292252 -5.85329e-17)
(-0.666094 -1.91059 -1.38954e-16)
(-0.954553 -9.49226 -3.63846e-17)
(0.134421 1.32065 4.60121e-17)
(-0.898303 0.827915 -3.80333e-17)
(0.425232 2.56345 3.54132e-17)
(-0.857197 4.28435 3.42624e-17)
(0.572224 4.19049 -1.14374e-17)
(-0.17192 3.11224 3.58892e-17)
(-0.671792 1.75482 -4.38141e-17)
(-0.634588 -1.37457 -1.35946e-16)
(-0.951369 -11.0561 1.77821e-18)
(0.511371 0.585026 1.58899e-16)
(-0.463093 1.34117 3.54671e-18)
(-0.0538395 3.04972 3.2422e-17)
(-1.03743 4.33517 1.46829e-17)
(-2.6777 1.17862 3.69932e-17)
(-2.00137 1.03663 3.25135e-17)
(-2.13753 1.15586 9.04097e-17)
(-1.65033 0.921243 -2.55884e-17)
(-1.80121 0.940098 4.26477e-17)
(-1.39474 0.634987 -1.13821e-16)
(-1.07056 0.376022 -2.8367e-17)
(-0.878696 0.268507 1.04864e-16)
(-0.930641 0.352921 3.03402e-17)
(-1.43513 0.878364 -1.50785e-17)
(-1.35672 1.14716 -8.27513e-18)
(-1.41029 0.905875 8.01774e-18)
(-1.16146 1.05759 -4.90518e-17)
(-1.30971 0.892248 5.48183e-17)
(-0.740079 0.791565 -4.86517e-17)
(-0.950954 0.656565 1.3668e-16)
(-0.507946 0.522039 -2.21939e-17)
(-0.718169 0.341887 1.32433e-16)
(-0.866497 1.02368 1.06382e-17)
(-0.797077 0.912977 3.76613e-17)
(-0.722484 0.726647 -2.60939e-18)
(-0.577518 0.717958 3.78253e-17)
(-0.520396 0.477036 4.14553e-17)
(-0.235789 0.460446 5.76789e-17)
(-0.409783 0.334993 7.33742e-18)
(0.06534 0.180215 -6.85454e-17)
(-0.302303 0.145137 8.95527e-17)
(-0.386108 0.673621 5.01982e-17)
(-0.384105 0.436626 7.0692e-17)
(-0.296753 0.44869 7.52079e-17)
(-0.247847 0.311113 1.25376e-17)
(-0.154479 0.22102 1.17803e-16)
(-0.0826763 0.155433 1.2749e-16)
(-0.0982179 0.0945218 3.413e-17)
(0.0557546 0.0257612 5.54344e-17)
(0.0199393 0.0366301 7.42974e-17)
(0.0763606 0.300573 4.66958e-18)
(0.120169 0.220329 -4.09944e-17)
(0.0972669 0.154272 -4.0338e-17)
(0.0985772 0.0864148 -6.98375e-17)
(0.0898935 0.0352165 -1.30077e-16)
(0.0474027 0.000128269 -2.79305e-17)
(0.0335963 -0.0216793 2.08248e-17)
(-0.0147748 -0.0402993 9.66361e-17)
(-0.0406977 -0.00641669 3.02328e-17)
(0.525135 0.737028 2.85836e-17)
(0.584678 0.565272 -6.77854e-18)
(0.448198 0.522959 -9.77169e-18)
(0.412214 0.402307 -2.77671e-17)
(0.333052 0.31454 -7.44395e-17)
(0.0926741 0.183869 -2.95136e-17)
(0.212938 0.167523 5.42381e-17)
(-0.138854 0.0187177 8.68821e-17)
(-0.0847412 0.0320066 5.2625e-17)
(1.04263 0.956968 4.95709e-17)
(1.02987 0.982415 9.45297e-17)
(1.00288 0.770222 2.00417e-17)
(0.771627 0.777837 7.50132e-17)
(0.934032 0.637022 1.71029e-17)
(0.283143 0.475804 2.48785e-18)
(0.7347 0.487719 -6.39866e-18)
(-0.0237949 0.203803 -2.18065e-17)
(0.344343 0.155078 -3.78298e-17)
(1.62802 0.929457 4.07326e-17)
(1.35697 1.00185 6.75006e-17)
(1.68391 1.00558 3.65578e-17)
(1.09344 0.934703 7.46096e-17)
(1.66223 1.04706 1.0824e-16)
(0.815867 0.788164 5.03323e-17)
(1.12448 0.751268 6.72176e-17)
(0.682475 0.606963 8.16779e-18)
(0.735438 0.375027 -4.07932e-17)
(2.85036 1.20388 -2.40935e-17)
(1.89238 0.812215 -2.32517e-17)
(2.2819 1.09659 3.60406e-17)
(1.54532 0.844896 -5.05693e-17)
(1.81304 0.844806 4.64293e-17)
(1.59703 0.702974 1.12197e-16)
(1.14713 0.384754 3.99193e-17)
(0.924403 0.3423 -1.15544e-16)
(0.931851 0.35744 -5.45479e-17)
(0.214543 -0.963513 1.37577e-16)
(-0.237259 -0.146341 4.94938e-17)
(-0.857749 0.00222601 1.47787e-16)
(-1.44585 0.242164 3.13534e-17)
(-2.03914 0.287291 8.33155e-17)
(-2.43399 0.413691 1.19758e-17)
(-2.71219 0.347881 5.33213e-17)
(-3.22158 0.0753524 2.74889e-17)
(-2.81744 0.23124 2.77464e-17)
(0.0712057 0.327417 4.55278e-18)
(0.51788 0.632762 3.05267e-17)
(0.920685 0.742941 6.05123e-17)
(0.990886 0.522945 2.0392e-17)
(0.821269 0.640681 3.38627e-17)
(0.207689 0.346163 1.3479e-17)
(-0.104968 1.75257 6.45326e-17)
(-0.83879 0.554036 1.36908e-16)
(-1.31921 0.0536177 3.78945e-17)
(-0.569074 0.724309 -4.31658e-17)
(-0.962613 0.0246554 2.27148e-17)
(-1.17421 -0.255634 -1.61629e-17)
(-1.2411 -0.415235 6.12884e-17)
(-1.22332 -0.568742 3.19802e-18)
(-1.1479 -0.613427 8.33235e-17)
(-1.1097 -0.628329 2.93209e-17)
(-1.00039 -0.366144 7.36923e-17)
(-1.0941 -0.432267 4.52625e-17)
(0.240914 -0.993081 -5.27694e-17)
(0.0962936 -1.05757 1.35919e-17)
(0.129831 -0.659095 4.02533e-17)
(0.0532827 -0.324121 9.63118e-17)
(0.027493 -0.200441 -7.12214e-17)
(0.0297063 -0.228515 -2.22949e-17)
(0.0259463 -0.282061 8.86908e-19)
(0.0202309 -0.314413 6.25169e-18)
(0.0170222 -0.288145 4.25807e-18)
(0.12677 -0.00150869 1.28114e-17)
(0.237571 -0.0019524 6.34815e-17)
(0.392505 -0.00191313 2.84844e-17)
(0.481696 -0.00178308 1.09436e-16)
(0.519216 -0.00150713 6.36065e-17)
(0.52414 -0.00125087 7.17093e-17)
(0.538775 -0.000952352 2.41619e-17)
(0.559064 -0.000771501 9.72541e-17)
(0.598833 -0.000359412 8.55394e-17)
(0.24074 0.990555 1.38051e-16)
(0.0964112 1.05519 2.23834e-16)
(0.130141 0.656562 9.83647e-17)
(0.0535843 0.320991 1.50646e-17)
(0.027479 0.197343 -8.79242e-17)
(0.0296315 0.226134 -2.34796e-17)
(0.0258147 0.280642 -1.53269e-17)
(0.020214 0.313848 -9.01995e-17)
(0.01666 0.287693 1.53365e-17)
(-0.569131 -0.722655 8.06627e-17)
(-0.963713 -0.0238329 7.74499e-17)
(-1.17596 0.255046 1.04402e-16)
(-1.24312 0.414213 9.02541e-17)
(-1.22535 0.567085 1.08547e-16)
(-1.1501 0.611865 1.0079e-16)
(-1.11192 0.626554 9.04091e-17)
(-1.00221 0.364245 1.07351e-16)
(-1.09653 0.4301 1.01795e-16)
(0.0682293 -0.331173 2.93273e-17)
(0.514577 -0.636336 7.94217e-17)
(0.917154 -0.745234 2.76279e-17)
(0.988043 -0.525233 6.7481e-17)
(0.818838 -0.64147 8.66287e-17)
(0.206435 -0.3489 5.85816e-17)
(-0.10699 -1.75454 1.47945e-16)
(-0.841679 -0.554113 8.62598e-17)
(-1.32219 -0.0558356 8.23517e-17)
(0.213521 0.961001 6.73209e-17)
(-0.237986 0.144674 7.17094e-17)
(-0.857849 -0.00364475 1.54569e-16)
(-1.44642 -0.242959 5.73972e-17)
(-2.04037 -0.28777 3.92704e-17)
(-2.43587 -0.414087 7.35706e-17)
(-2.71458 -0.347686 5.96206e-17)
(-3.22549 -0.0748872 4.60205e-17)
(-2.82105 -0.229604 6.44641e-17)
(-0.931368 -0.354091 3.02628e-18)
(-0.88053 -0.270644 1.28291e-16)
(-1.07228 -0.377863 2.64217e-17)
(-1.39635 -0.636562 -5.18798e-17)
(-1.80308 -0.942237 1.17366e-16)
(-1.65291 -0.924075 9.65877e-17)
(-2.14046 -1.15916 1.2205e-16)
(-2.00407 -1.03989 7.60702e-17)
(-2.68214 -1.1817 9.91333e-17)
(-0.719775 -0.343529 2.25026e-17)
(-0.510274 -0.524146 -6.97037e-17)
(-0.952696 -0.65925 8.92666e-17)
(-0.74276 -0.794714 -1.01892e-16)
(-1.3115 -0.894899 -1.1364e-17)
(-1.16377 -1.06057 -4.06599e-18)
(-1.41253 -0.908246 4.72016e-17)
(-1.35868 -1.14963 6.64754e-17)
(-1.43754 -0.880199 6.1304e-17)
(-0.302181 -0.145546 1.56205e-17)
(0.0646926 -0.18122 -2.63038e-17)
(-0.410068 -0.336206 1.78046e-17)
(-0.237438 -0.462159 -1.44675e-17)
(-0.521923 -0.478336 -1.68165e-17)
(-0.579281 -0.71945 -1.65802e-18)
(-0.724587 -0.727918 3.63645e-17)
(-0.798926 -0.914325 -2.17625e-17)
(-0.868755 -1.02526 3.77126e-17)
(0.020614 -0.0365389 2.34655e-17)
(0.0556416 -0.0258603 4.61981e-17)
(-0.0992867 -0.0948014 1.30854e-16)
(-0.0844407 -0.15596 4.30783e-19)
(-0.156729 -0.221557 -4.21577e-18)
(-0.250298 -0.311917 1.2073e-17)
(-0.299553 -0.449596 9.23994e-17)
(-0.38683 -0.437432 -1.49323e-17)
(-0.389 -0.674687 -7.44671e-18)
(-0.0401681 0.00662611 3.23907e-18)
(-0.0148682 0.0404596 5.79239e-18)
(0.0324877 0.0220658 7.49874e-18)
(0.0460058 0.000274943 -7.27582e-18)
(0.0879544 -0.0350217 -2.31873e-17)
(0.0961604 -0.0863001 -2.51256e-17)
(0.0945917 -0.154261 5.1904e-17)
(0.117307 -0.220285 9.8427e-18)
(0.0733124 -0.300626 7.06872e-17)
(-0.0852617 -0.0319167 8.70323e-18)
(-0.139208 -0.0183443 8.28072e-17)
(0.211716 -0.166837 2.23456e-17)
(0.0917392 -0.183647 -4.01388e-17)
(0.33219 -0.314427 -1.04879e-16)
(0.4112 -0.402297 -4.09318e-17)
(0.446852 -0.523263 -6.0933e-17)
(0.58302 -0.565542 6.41195e-18)
(0.523205 -0.737679 -1.05095e-17)
(0.342984 -0.154866 9.60912e-17)
(-0.0264525 -0.20342 -3.83915e-17)
(0.734118 -0.48794 -5.22066e-17)
(0.282131 -0.476856 5.05397e-17)
(0.932961 -0.637637 1.45212e-17)
(0.770731 -0.779177 4.71637e-17)
(1.00144 -0.771425 2.21183e-17)
(1.02857 -0.984282 4.18208e-17)
(1.04107 -0.958788 4.55062e-17)
(0.735083 -0.376277 -1.97921e-17)
(0.681463 -0.608804 6.22393e-18)
(1.12613 -0.754097 4.09812e-17)
(0.814583 -0.791586 5.36655e-17)
(1.66237 -1.04936 -1.68228e-17)
(1.09335 -0.938126 7.33553e-17)
(1.6833 -1.00795 -2.62148e-17)
(1.35704 -1.00542 -7.20248e-18)
(1.62727 -0.932005 -6.05235e-17)
(0.931516 -0.359907 2.7931e-17)
(0.927561 -0.344839 1.36976e-16)
(1.14718 -0.386772 -2.19792e-19)
(1.5958 -0.70406 -1.13533e-16)
(1.81442 -0.847087 5.24191e-17)
(1.54504 -0.848404 1.08637e-17)
(2.2834 -1.10043 -4.74396e-17)
(1.89384 -0.817047 3.7294e-17)
(2.85224 -1.20847 -6.31818e-18)
(2.66764 0.140138 1.65497e-17)
(1.33684 0.194899 -1.58442e-18)